# vtk DataFile Version 4.2
Nek_SpectralElementData
ASCII
DATASET UNSTRUCTURED_GRID

POINTS 25344 float
1.81533 0.652061 0 1.82042 0.654759 0 1.83202 0.66091 0 
1.84923 0.670039 0 1.87077 0.681465 0 1.89506 0.694343 0 
1.92027 0.707717 0 1.94456 0.720595 0 1.9661 0.732022 0 
1.98331 0.74115 0 1.99491 0.747302 0 2 0.75 0 
1.81491 0.656136 0 1.82001 0.658912 0 1.83163 0.66524 0 
1.84888 0.67463 0 1.87048 0.686385 0 1.89482 0.699633 0 
1.92009 0.713391 0 1.94443 0.726639 0 1.96602 0.738393 0 
1.98328 0.747784 0 1.9949 0.754112 0 2 0.756888 0 
1.81395 0.665428 0 1.81907 0.668381 0 1.83076 0.675112 0 
1.8481 0.685099 0 1.86981 0.697602 0 1.89427 0.711693 0 
1.91968 0.726326 0 1.94414 0.740416 0 1.96585 0.752919 0 
1.98319 0.762907 0 1.99487 0.769638 0 2 0.77259 0 
1.81252 0.679217 0 1.81768 0.682431 0 1.82946 0.689759 0 
1.84693 0.700634 0 1.86881 0.714246 0 1.89346 0.729587 0 
1.91906 0.74552 0 1.94371 0.760861 0 1.96559 0.774474 0 
1.98306 0.785348 0 1.99483 0.792676 0 2 0.795891 0 
1.81073 0.696477 0 1.81594 0.70002 0 1.82783 0.708096 0 
1.84547 0.72008 0 1.86755 0.735082 0 1.89244 0.751989 0 
1.91829 0.769547 0 1.94317 0.786454 0 1.96526 0.801456 0 
1.9829 0.81344 0 1.99479 0.821516 0 2 0.825059 0 
1.80871 0.71593 0 1.81398 0.719842 0 1.826 0.728761 0 
1.84383 0.741996 0 1.86614 0.758563 0 1.8913 0.777235 0 
1.91742 0.796626 0 1.94257 0.815297 0 1.96489 0.831865 0 
1.98272 0.8451 0 1.99473 0.854019 0 2 0.857931 0 
1.80662 0.736131 0 1.81195 0.740427 0 1.82409 0.750222 0 
1.84212 0.764755 0 1.86468 0.782949 0 1.89011 0.803453 0 
1.91651 0.824747 0 1.94194 0.845251 0 1.9645 0.863445 0 
1.98253 0.877979 0 1.99467 0.887773 0 2 0.892069 0 
1.8046 0.755583 0 1.80999 0.760249 0 1.82226 0.770887 0 
1.84047 0.786671 0 1.86327 0.806431 0 1.88896 0.828699 0 
1.91564 0.851826 0 1.94134 0.874094 0 1.96413 0.893854 0 
1.98234 0.909638 0 1.99462 0.920276 0 2 0.924941 0 
1.80281 0.772844 0 1.80825 0.777838 0 1.82063 0.789223 0 
1.83901 0.806117 0 1.86202 0.827266 0 1.88794 0.851101 0 
1.91487 0.875853 0 1.9408 0.899687 0 1.9638 0.920836 0 
1.98218 0.93773 0 1.99457 0.949116 0 2 0.954109 0 
1.80139 0.786632 0 1.80686 0.791888 0 1.81933 0.803871 0 
1.83784 0.821652 0 1.86102 0.84391 0 1.88713 0.868995 0 
1.91425 0.895047 0 1.94037 0.920132 0 1.96354 0.94239 0 
1.98205 0.960171 0 1.99453 0.972154 0 2 0.97741 0 
1.80042 0.795924 0 1.80592 0.801357 0 1.81846 0.813742 0 
1.83706 0.83212 0 1.86034 0.855127 0 1.88658 0.881055 0 
1.91384 0.907982 0 1.94008 0.93391 0 1.96337 0.956916 0 
1.98197 0.975294 0 1.9945 0.98768 0 2 0.993112 0 
1.8 0.8 0 1.80551 0.80551 0 1.81807 0.818072 0 
1.83671 0.836712 0 1.86005 0.860047 0 1.88634 0.886345 0 
1.91366 0.913655 0 1.93995 0.939953 0 1.96329 0.963288 0 
1.98193 0.981928 0 1.99449 0.99449 0 2 1 0 
1.82071 0.5 0 1.82565 0.5 0 1.83692 0.5 0 
1.85362 0.5 0 1.87454 0.5 0 1.89812 0.5 0 
1.9226 0.5 0 1.94617 0.5 0 1.96709 0.5 0 
1.9838 0.5 0 1.99506 0.5 0 2 0.5 0 
1.82057 0.504189 0 1.82551 0.504264 0 1.83678 0.504433 0 
1.8535 0.504685 0 1.87444 0.504999 0 1.89803 0.505354 0 
1.92253 0.505723 0 1.94613 0.506077 0 1.96706 0.506392 0 
1.98379 0.506644 0 1.99506 0.506813 0 2 0.506888 0 
1.82023 0.51374 0 1.82518 0.513984 0 1.83647 0.51454 0 
1.85323 0.515365 0 1.8742 0.516397 0 1.89784 0.517561 0 
1.92239 0.518769 0 1.94603 0.519933 0 1.967 0.520966 0 
1.98376 0.52179 0 1.99505 0.522346 0 2 0.52259 0 
1.81973 0.527913 0 1.82469 0.528408 0 1.83602 0.529537 0 
1.85282 0.531213 0 1.87385 0.53331 0 1.89755 0.535674 0 
1.92217 0.538129 0 1.94588 0.540493 0 1.96691 0.54259 0 
1.98371 0.544266 0 1.99503 0.545395 0 2 0.545891 0 
1.8191 0.545654 0 1.82408 0.546464 0 1.83544 0.548311 0 
1.85231 0.551051 0 1.87341 0.554482 0 1.8972 0.558349 0 
1.9219 0.562364 0 1.94569 0.56623 0 1.96679 0.569661 0 
1.98365 0.572402 0 1.99502 0.574248 0 2 0.575059 0 
1.81839 0.565648 0 1.82339 0.566813 0 1.8348 0.569469 0 
1.85173 0.57341 0 1.87292 0.578343 0 1.8968 0.583903 0 
1.92159 0.589676 0 1.94547 0.595236 0 1.96666 0.600169 0 
1.98359 0.60411 0 1.995 0.606766 0 2 0.607931 0 
1.81766 0.586412 0 1.82268 0.587946 0 1.83413 0.591442 0 
1.85113 0.596629 0 1.8724 0.603123 0 1.89638 0.610441 0 
1.92128 0.618041 0 1.94525 0.625359 0 1.96653 0.631853 0 
1.98352 0.63704 0 1.99498 0.640536 0 2 0.642069 0 
1.81695 0.606407 0 1.82199 0.608295 0 1.83349 0.6126 0 
1.85055 0.618987 0 1.87191 0.626983 0 1.89598 0.635995 0 
1.92097 0.645353 0 1.94504 0.654365 0 1.9664 0.662361 0 
1.98346 0.668749 0 1.99496 0.673053 0 2 0.674941 0 
1.81632 0.624148 0 1.82138 0.626351 0 1.83292 0.631373 0 
1.85004 0.638826 0 1.87147 0.648155 0 1.89562 0.658669 0 
1.9207 0.669588 0 1.94485 0.680102 0 1.96628 0.689432 0 
1.9834 0.696884 0 1.99494 0.701907 0 2 0.704109 0 
1.81582 0.63832 0 1.82089 0.640775 0 1.83246 0.646371 0 
1.84963 0.654674 0 1.87112 0.665068 0 1.89533 0.676782 0 
1.92048 0.688948 0 1.9447 0.700662 0 1.96619 0.711056 0 
1.98336 0.71936 0 1.99493 0.724955 0 2 0.72741 0 
1.81548 0.647871 0 1.82056 0.650495 0 1.83215 0.656477 0 
1.84935 0.665354 0 1.87088 0.676466 0 1.89514 0.688989 0 
1.92034 0.701995 0 1.9446 0.714518 0 1.96613 0.72563 0 
1.98333 0.734506 0 1.99492 0.740488 0 2 0.743112 0 
1.81533 0.652061 0 1.82042 0.654759 0 1.83202 0.66091 0 
1.84923 0.670039 0 1.87077 0.681465 0 1.89506 0.694343 0 
1.92027 0.707717 0 1.94456 0.720595 0 1.9661 0.732022 0 
1.98331 0.74115 0 1.99491 0.747302 0 2 0.75 0 
1.75 -0.5 0 1.75689 -0.5 0 1.77259 -0.5 0 
1.79589 -0.5 0 1.82506 -0.5 0 1.85793 -0.5 0 
1.89207 -0.5 0 1.92494 -0.5 0 1.95411 -0.5 0 
1.97741 -0.5 0 1.99311 -0.5 0 2 -0.5 0 
1.75 -0.486225 0 1.75689 -0.486225 0 1.77259 -0.486225 0 
1.79589 -0.486225 0 1.82506 -0.486225 0 1.85793 -0.486225 0 
1.89207 -0.486225 0 1.92494 -0.486225 0 1.95411 -0.486225 0 
1.97741 -0.486225 0 1.99311 -0.486225 0 2 -0.486225 0 
1.75 -0.45482 0 1.75689 -0.45482 0 1.77259 -0.45482 0 
1.79589 -0.45482 0 1.82506 -0.45482 0 1.85793 -0.45482 0 
1.89207 -0.45482 0 1.92494 -0.45482 0 1.95411 -0.45482 0 
1.97741 -0.45482 0 1.99311 -0.45482 0 2 -0.45482 0 
1.75 -0.408219 0 1.75689 -0.408219 0 1.77259 -0.408219 0 
1.79589 -0.408219 0 1.82506 -0.408219 0 1.85793 -0.408219 0 
1.89207 -0.408219 0 1.92494 -0.408219 0 1.95411 -0.408219 0 
1.97741 -0.408219 0 1.99311 -0.408219 0 2 -0.408219 0 
1.75 -0.349883 0 1.75689 -0.349883 0 1.77259 -0.349883 0 
1.79589 -0.349883 0 1.82506 -0.349883 0 1.85793 -0.349883 0 
1.89207 -0.349883 0 1.92494 -0.349883 0 1.95411 -0.349883 0 
1.97741 -0.349883 0 1.99311 -0.349883 0 2 -0.349883 0 
1.75 -0.284138 0 1.75689 -0.284138 0 1.77259 -0.284138 0 
1.79589 -0.284138 0 1.82506 -0.284138 0 1.85793 -0.284138 0 
1.89207 -0.284138 0 1.92494 -0.284138 0 1.95411 -0.284138 0 
1.97741 -0.284138 0 1.99311 -0.284138 0 2 -0.284138 0 
1.75 -0.215862 0 1.75689 -0.215862 0 1.77259 -0.215862 0 
1.79589 -0.215862 0 1.82506 -0.215862 0 1.85793 -0.215862 0 
1.89207 -0.215862 0 1.92494 -0.215862 0 1.95411 -0.215862 0 
1.97741 -0.215862 0 1.99311 -0.215862 0 2 -0.215862 0 
1.75 -0.150117 0 1.75689 -0.150117 0 1.77259 -0.150117 0 
1.79589 -0.150117 0 1.82506 -0.150117 0 1.85793 -0.150117 0 
1.89207 -0.150117 0 1.92494 -0.150117 0 1.95411 -0.150117 0 
1.97741 -0.150117 0 1.99311 -0.150117 0 2 -0.150117 0 
1.75 -0.091781 0 1.75689 -0.091781 0 1.77259 -0.091781 0 
1.79589 -0.091781 0 1.82506 -0.091781 0 1.85793 -0.091781 0 
1.89207 -0.091781 0 1.92494 -0.091781 0 1.95411 -0.091781 0 
1.97741 -0.091781 0 1.99311 -0.091781 0 2 -0.091781 0 
1.75 -0.0451802 0 1.75689 -0.0451802 0 1.77259 -0.0451802 0 
1.79589 -0.0451802 0 1.82506 -0.0451802 0 1.85793 -0.0451802 0 
1.89207 -0.0451802 0 1.92494 -0.0451802 0 1.95411 -0.0451802 0 
1.97741 -0.0451802 0 1.99311 -0.0451802 0 2 -0.0451802 0 
1.75 -0.0137752 0 1.75689 -0.0137752 0 1.77259 -0.0137752 0 
1.79589 -0.0137752 0 1.82506 -0.0137752 0 1.85793 -0.0137752 0 
1.89207 -0.0137752 0 1.92494 -0.0137752 0 1.95411 -0.0137752 0 
1.97741 -0.0137752 0 1.99311 -0.0137752 0 2 -0.0137752 0 
1.75 0 0 1.75689 0 0 1.77259 0 0 
1.79589 0 0 1.82506 0 0 1.85793 0 0 
1.89207 0 0 1.92494 0 0 1.95411 0 0 
1.97741 0 0 1.99311 0 0 2 0 0 
1.75 -1 0 1.75689 -1 0 1.77259 -1 0 
1.79589 -1 0 1.82506 -1 0 1.85793 -1 0 
1.89207 -1 0 1.92494 -1 0 1.95411 -1 0 
1.97741 -1 0 1.99311 -1 0 2 -1 0 
1.75 -0.986225 0 1.75689 -0.986225 0 1.77259 -0.986225 0 
1.79589 -0.986225 0 1.82506 -0.986225 0 1.85793 -0.986225 0 
1.89207 -0.986225 0 1.92494 -0.986225 0 1.95411 -0.986225 0 
1.97741 -0.986225 0 1.99311 -0.986225 0 2 -0.986225 0 
1.75 -0.95482 0 1.75689 -0.95482 0 1.77259 -0.95482 0 
1.79589 -0.95482 0 1.82506 -0.95482 0 1.85793 -0.95482 0 
1.89207 -0.95482 0 1.92494 -0.95482 0 1.95411 -0.95482 0 
1.97741 -0.95482 0 1.99311 -0.95482 0 2 -0.95482 0 
1.75 -0.908219 0 1.75689 -0.908219 0 1.77259 -0.908219 0 
1.79589 -0.908219 0 1.82506 -0.908219 0 1.85793 -0.908219 0 
1.89207 -0.908219 0 1.92494 -0.908219 0 1.95411 -0.908219 0 
1.97741 -0.908219 0 1.99311 -0.908219 0 2 -0.908219 0 
1.75 -0.849883 0 1.75689 -0.849883 0 1.77259 -0.849883 0 
1.79589 -0.849883 0 1.82506 -0.849883 0 1.85793 -0.849883 0 
1.89207 -0.849883 0 1.92494 -0.849883 0 1.95411 -0.849883 0 
1.97741 -0.849883 0 1.99311 -0.849883 0 2 -0.849883 0 
1.75 -0.784138 0 1.75689 -0.784138 0 1.77259 -0.784138 0 
1.79589 -0.784138 0 1.82506 -0.784138 0 1.85793 -0.784138 0 
1.89207 -0.784138 0 1.92494 -0.784138 0 1.95411 -0.784138 0 
1.97741 -0.784138 0 1.99311 -0.784138 0 2 -0.784138 0 
1.75 -0.715862 0 1.75689 -0.715862 0 1.77259 -0.715862 0 
1.79589 -0.715862 0 1.82506 -0.715862 0 1.85793 -0.715862 0 
1.89207 -0.715862 0 1.92494 -0.715862 0 1.95411 -0.715862 0 
1.97741 -0.715862 0 1.99311 -0.715862 0 2 -0.715862 0 
1.75 -0.650117 0 1.75689 -0.650117 0 1.77259 -0.650117 0 
1.79589 -0.650117 0 1.82506 -0.650117 0 1.85793 -0.650117 0 
1.89207 -0.650117 0 1.92494 -0.650117 0 1.95411 -0.650117 0 
[...]
POINT_DATA 25344
FIELD FieldData 1
pressure 1 25344 float
-0.199829 -0.192791 -0.177248 -0.156133 -0.134382 -0.117703 -0.109883 -0.110822 -0.117159 
-0.124719 -0.13053 -0.133176 -0.196702 -0.189674 -0.174232 -0.15348 -0.1325 -0.116946 
-0.110285 -0.112022 -0.118617 -0.126026 -0.131552 -0.134024 -0.190265 -0.183318 -0.168253 
-0.148527 -0.129455 -0.11643 -0.112117 -0.115182 -0.121836 -0.128473 -0.1331 -0.135091 
-0.182421 -0.175739 -0.161553 -0.143731 -0.127666 -0.118017 -0.116129 -0.119746 -0.125253 
-0.130015 -0.13302 -0.134233 -0.175208 -0.169053 -0.15634 -0.141166 -0.128526 -0.12179 
-0.120917 -0.123345 -0.12635 -0.128505 -0.12961 -0.129978 -0.169862 -0.164424 -0.153482 
-0.140961 -0.130948 -0.125459 -0.123758 -0.123801 -0.123972 -0.123716 -0.123229 -0.122923 
-0.166234 -0.161485 -0.15206 -0.141379 -0.132558 -0.126804 -0.123423 -0.121101 -0.118988 
-0.116964 -0.115363 -0.114594 -0.163316 -0.159057 -0.150591 -0.14081 -0.132177 -0.12561 
-0.120679 -0.11658 -0.112884 -0.109683 -0.107359 -0.106292 -0.160428 -0.156458 -0.148497 
-0.139066 -0.130277 -0.122966 -0.116909 -0.111613 -0.106894 -0.10296 -0.100198 -0.0989577 
-0.15769 -0.153878 -0.146177 -0.13688 -0.127908 -0.120073 -0.113287 -0.107248 -0.101916 
-0.0975588 -0.0945527 -0.093216 -0.155605 -0.151878 -0.144309 -0.135067 -0.125973 -0.117831 
-0.110631 -0.10418 -0.0985214 -0.0939443 -0.090815 -0.0894306 -0.154633 -0.150938 -0.14342 
-0.134197 -0.125052 -0.116787 -0.109425 -0.102816 -0.0970294 -0.0923672 -0.0891926 -0.0877924 
-0.432414 -0.434664 -0.439329 -0.444714 -0.44802 -0.445981 -0.436506 -0.420266 -0.400716 
-0.382425 -0.36916 -0.363171 -0.424855 -0.426763 -0.430647 -0.434896 -0.436892 -0.433664 
-0.423427 -0.407019 -0.38783 -0.370158 -0.357468 -0.351774 -0.407238 -0.408325 -0.410324 
-0.411798 -0.410547 -0.404276 -0.391928 -0.37477 -0.356082 -0.339606 -0.32811 -0.32304 
-0.380585 -0.380386 -0.379409 -0.376465 -0.369962 -0.358627 -0.342545 -0.323696 -0.305281 
-0.290272 -0.280386 -0.276176 -0.347456 -0.345627 -0.34088 -0.332341 -0.319195 -0.301479 
-0.280746 -0.259918 -0.242123 -0.229315 -0.221779 -0.218816 -0.311943 -0.308404 -0.299747 
-0.285536 -0.265928 -0.24249 -0.218365 -0.197335 -0.182132 -0.173257 -0.169239 -0.16802 
-0.278365 -0.27334 -0.261382 -0.242672 -0.218541 -0.192129 -0.167906 -0.149907 -0.139796 
-0.136286 -0.136323 -0.136952 -0.249827 -0.243731 -0.229531 -0.208167 -0.182194 -0.156079 
-0.134956 -0.122287 -0.118191 -0.119816 -0.123235 -0.125284 -0.227821 -0.221102 -0.205746 
-0.183458 -0.157854 -0.134254 -0.117755 -0.110719 -0.11177 -0.117069 -0.122539 -0.125347 
-0.21257 -0.205586 -0.189884 -0.167804 -0.143714 -0.123301 -0.111191 -0.108573 -0.112952 
-0.120092 -0.126256 -0.129215 -0.203496 -0.196454 -0.180811 -0.159326 -0.136785 -0.11893 
-0.109836 -0.1098 -0.115694 -0.123278 -0.129301 -0.132081 -0.199826 -0.192791 -0.177247 
-0.156129 -0.134382 -0.117707 -0.109887 -0.11082 -0.117149 -0.124714 -0.130518 -0.133144 
-0.0196948 -0.0198256 -0.0200739 -0.0203151 -0.0204065 -0.0202373 -0.0197708 -0.01906 -0.0182312 
-0.0174467 -0.0168617 -0.0165916 -0.0209732 -0.0211015 -0.0213418 -0.0215655 -0.021626 -0.0214107 
-0.0208845 -0.020106 -0.0192099 -0.0183676 -0.0177418 -0.0174534 -0.0241096 -0.0242314 -0.0244514 
-0.0246313 -0.0246141 -0.0242826 -0.0236063 -0.0226577 -0.0215927 -0.020605 -0.0198769 -0.0195427 
-0.0293935 -0.0295038 -0.0296879 -0.0297902 -0.0296361 -0.0290999 -0.0281591 -0.0269115 -0.0255496 
-0.0243068 -0.0233993 -0.0229847 -0.0372542 -0.037346 -0.0374726 -0.0374511 -0.0370794 -0.0362189 
-0.0348599 -0.03314 -0.03131 -0.0296657 -0.0284759 -0.027935 -0.0481681 -0.0482313 -0.0482703 
-0.0480619 -0.0473632 -0.0460173 -0.0440338 -0.0416103 -0.0390844 -0.0368439 -0.0352358 -0.0345078 
-0.0624743 -0.0624958 -0.0624082 -0.0619322 -0.0607688 -0.0587356 -0.0558703 -0.0524549 -0.0489494 
-0.0458713 -0.0436761 -0.0426858 -0.0800332 -0.0799984 -0.0797415 -0.0789115 -0.0771368 -0.0742015 
-0.0701798 -0.0654642 -0.0606754 -0.0565006 -0.0535377 -0.0522046 -0.0997342 -0.0996321 -0.0991748 
-0.0979284 -0.0954357 -0.0914401 -0.0860552 -0.0798028 -0.0734949 -0.0680217 -0.0641502 -0.0624116 
-0.119081 -0.118912 -0.118256 -0.116596 -0.113388 -0.108328 -0.101565 -0.0937483 -0.085888 
-0.0790861 -0.0742846 -0.0721311 -0.134354 -0.134134 -0.133325 -0.131346 -0.127581 -0.12168 
-0.113815 -0.104737 -0.095618 -0.087736 -0.0821781 -0.0796873 -0.141709 -0.141465 -0.140586 
-0.138459 -0.13443 -0.128128 -0.119731 -0.110039 -0.100304 -0.091893 -0.0859644 -0.0833084 
0.00115225 0.000962325 0.000549319 -1.20307e-005 -0.000627608 -0.00120512 -0.00167519 -0.00200453 -0.00219741 
-0.00228585 -0.00231329 -0.00231729 0.00105134 0.000863239 0.000454504 -0.000100257 -0.000707207 -0.00127457 
-0.00173375 -0.00205239 -0.0022357 -0.00231652 -0.00233886 -0.00234063 0.000739989 0.000555869 0.000156541 
-0.000383437 -0.000970598 -0.00151416 -0.00194721 -0.00223968 -0.00239919 -0.00246079 -0.00247015 -0.00246623 
6.61289e-005 -0.00011251 -0.000498576 -0.00101698 -0.0015741 -0.00208013 -0.00247058 -0.00271908 -0.00283767 
-0.00286561 -0.00285191 -0.00283781 -0.00114798 -0.00132031 -0.00169055 -0.00218186 -0.00269923 -0.00315319 
-0.00348219 -0.00366531 -0.00372157 -0.00369732 -0.00364746 -0.00361729 -0.00304458 -0.00321026 -0.00356296 
-0.00402226 -0.00448988 -0.00487556 -0.00512106 -0.005213 -0.00518066 -0.00508122 -0.00497881 -0.00492517 
-0.00567013 -0.005829 -0.00616269 -0.00658505 -0.00699211 -0.00729146 -0.00742856 -0.0073999 -0.00724892 
-0.00704792 -0.00687413 -0.00678852 -0.0089187 -0.0090706 -0.00938386 -0.00976436 -0.0101002 -0.0102954 
-0.0102995 -0.0101213 -0.00982212 -0.00949374 -0.0092302 -0.00910434 -0.0124884 -0.0126333 -0.0129253 
-0.0132607 -0.0135181 -0.013597 -0.0134514 -0.0131039 -0.0126365 -0.0121632 -0.0117975 -0.0116259 
-0.0158792 -0.0160175 -0.0162892 -0.0165811 -0.016762 -0.0167266 -0.0164334 -0.0159187 -0.015285 
-0.0146685 -0.0142019 -0.0139849 -0.0184718 -0.0186051 -0.018861 -0.0191187 -0.0192391 -0.0191135 
-0.0187034 -0.0180564 -0.017291 -0.0165612 -0.0160146 -0.0157618 -0.0196947 -0.0198256 -0.0200739 
-0.0203151 -0.0204065 -0.0202373 -0.0197708 -0.01906 -0.0182312 -0.0174467 -0.0168617 -0.0165916 
0.0113821 0.0110234 0.0102196 0.00906358 0.00768205 0.00621797 0.00480803 0.00356231 0.0025526 
0.00181244 0.0013475 0.00115225 0.0112379 0.0108798 0.0100774 0.00892378 0.00754585 0.00608664 
0.00468265 0.0034435 0.00244029 0.00170574 0.00124479 0.00105134 0.0108516 0.0104937 0.00969209 
0.00854078 0.00716738 0.00571556 0.00432185 0.00309509 0.00210486 0.001382 0.000929556 0.000739989 
0.0101264 0.00976623 0.00896004 0.00780382 0.00642761 0.00497724 0.00359036 0.00237539 0.00139989 
0.000691635 0.000250421 6.61287e-005 0.00895076 0.00858297 0.00776069 0.0065838 0.00518743 0.00372237 
0.00232963 0.00111833 0.000153841 -0.000540412 -0.000969609 -0.00114798 0.00724083 0.0068577 0.00600229 
0.00478113 0.00333815 0.00183304 0.000413508 -0.000808787 -0.00177062 -0.00245433 -0.00287223 -0.00304458 
0.00498537 0.00457761 0.00366858 0.00237469 0.000852965 -0.000723234 -0.00219552 -0.00344737 -0.00441751 
-0.00509564 -0.00550365 -0.00567013 0.00228763 0.00184618 0.000863504 -0.000531056 -0.00216312 -0.00384105 
-0.00539177 -0.00669158 -0.00768092 -0.00835839 -0.00875795 -0.0089187 -0.000604482 -0.00108584 -0.00215596 
-0.0036705 -0.0054349 -0.00723601 -0.00888329 -0.0102442 -0.0112605 -0.011941 -0.0123332 -0.0124884 
-0.00330208 -0.00382359 -0.00498174 -0.00661736 -0.00851572 -0.0104421 -0.0121883 -0.0136125 -0.014658 
-0.0153431 -0.0157291 -0.0158792 -0.00533884 -0.00589231 -0.00712061 -0.0088528 -0.0108582 -0.0128848 
-0.0147104 -0.0161858 -0.0172551 -0.0179443 -0.0183257 -0.0184718 -0.00629275 -0.00686164 -0.0081238 
-0.00990264 -0.0119598 -0.0140349 -0.015899 -0.0173991 -0.01848 -0.0191713 -0.0195505 -0.0196947 
-0.00629272 -0.00686161 -0.00812377 -0.00990262 -0.0119597 -0.0140349 -0.015899 -0.0173991 -0.01848 
-0.0191713 -0.0195505 -0.0196947 -0.00728571 -0.00787096 -0.00916903 -0.0109974 -0.0131094 -0.015236 
-0.0171409 -0.0186674 -0.0197605 -0.0204541 -0.020831 -0.0209732 -0.0097043 -0.0103306 -0.0117189 
-0.0136715 -0.0159215 -0.0181777 -0.0201852 -0.021778 -0.0229022 -0.0236013 -0.0239723 -0.0241096 
-0.0137294 -0.0144276 -0.015974 -0.0181448 -0.0206371 -0.0231206 -0.0253085 -0.0270176 -0.0281959 
-0.0289046 -0.0292651 -0.0293935 -0.0196192 -0.0204304 -0.0222251 -0.0247384 -0.0276111 -0.0304517 
-0.0329222 -0.0348129 -0.0360749 -0.0367973 -0.0371403 -0.0372542 -0.0276368 -0.0286151 -0.0307769 
-0.0337968 -0.0372317 -0.0405989 -0.0434848 -0.0456406 -0.0470226 -0.0477619 -0.0480766 -0.0481681 
-0.0379271 -0.0391397 -0.0418164 -0.0455459 -0.0497664 -0.0538665 -0.0573273 -0.0598461 -0.0613885 
-0.0621451 -0.062416 -0.0624743 -0.0503138 -0.051834 -0.0551856 -0.0598422 -0.0650838 -0.0701299 
-0.0743257 -0.0773026 -0.0790413 -0.0798117 -0.0800203 -0.0800332 -0.064021 -0.0659079 -0.0700613 
-0.0758127 -0.082249 -0.088389 -0.0934236 -0.0969151 -0.0988677 -0.0996448 -0.099776 -0.0997342 
-0.0774133 -0.0796781 -0.0846539 -0.0915173 -0.0991505 -0.106368 -0.112215 -0.116196 -0.118348 
-0.119125 -0.119178 -0.119081 -0.0880166 -0.0905901 -0.096233 -0.103988 -0.112565 -0.120616 
-0.127078 -0.131426 -0.133725 -0.134501 -0.134493 -0.134354 -0.0931508 -0.0958755 -0.101844 
-0.11003 -0.119057 -0.127498 -0.134245 -0.138761 -0.141127 -0.141903 -0.141867 -0.141709 
0.00878306 0.00931568 0.0104696 0.0120357 0.0137803 0.0155227 0.0171692 0.0186806 0.0200137 
0.0210949 0.0218367 0.0221659 0.00895057 0.00948746 0.0106461 0.012208 0.0139326 0.0156401 
0.0172461 0.0187224 0.0200323 0.021102 0.0218398 0.0221681 0.00939971 0.00994461 0.011109 
0.0126509 0.0143138 0.0159225 0.0174177 0.0188002 0.0200489 0.0210883 0.0218157 0.022142 
0.0102696 0.0108205 0.0119763 0.0134555 0.0149762 0.0163774 0.01765 0.0188495 0.0199819 
0.0209655 0.0216744 0.0219972 0.0117972 0.0123403 0.0134421 0.0147617 0.0159847 0.0169856 
0.0178492 0.0187251 0.0196595 0.020553 0.0212346 0.0215536 0.0143008 0.0148015 0.0157515 
0.0167253 0.0173735 0.0176486 0.0178043 0.0181457 0.0187718 0.0195374 0.0201888 0.0205077 
0.0180887 0.0184838 0.0191112 0.0194306 0.019062 0.0181113 0.0171241 0.0166509 0.0168479 
0.0174666 0.0181066 0.0184401 0.0232573 0.0234546 0.0235163 0.0227499 0.0207575 0.0179144 
0.0152422 0.0136567 0.0133489 0.013863 0.0145568 0.01494 0.0294169 0.0293164 0.0285497 
0.0262312 0.0219589 0.016522 0.0116507 0.00875667 0.00799612 0.00855116 0.00942593 0.00991813 
0.0355614 0.0351029 0.0333481 0.0291898 0.0222259 0.0137782 0.00648494 0.00233563 0.00133699 
0.00215426 0.00335998 0.00402315 0.0403343 0.0395537 0.0369097 0.0310908 0.0216889 0.0105414 
0.00118118 -0.00387885 -0.00486305 -0.00364787 -0.00205749 -0.00120997 0.0425789 0.0416321 0.0385283 
0.0318469 0.0211725 0.00862188 -0.00177736 -0.00723703 -0.00813712 -0.00666243 -0.00484467 -0.00389201 
0.00693761 0.00734953 0.00829804 0.00972177 0.0115133 0.0135177 0.0155543 0.0174489 0.0190612 
0.0202961 0.0210999 0.021445 0.00698624 0.00739689 0.00834201 0.00975956 0.0115419 0.0135349 
0.0155595 0.0174435 0.0190478 0.0202776 0.0210787 0.0214227 0.00708518 0.00749434 0.00843473 
0.00984227 0.0116081 0.0135793 0.0155802 0.0174427 0.0190307 0.0202501 0.0210457 0.0213877 
0.00720538 0.00761569 0.00855634 0.00995877 0.0117106 0.0136592 0.0156329 0.0174697 0.0190377 
0.0202444 0.0210334 0.0213731 0.00732229 0.00773933 0.0086915 0.0101021 0.0118515 0.013785 
0.0157351 0.0175471 0.0190955 0.02029 0.021073 0.0214107 0.00743249 0.00786342 0.0088416 
0.0102774 0.0120391 0.0139671 0.0158983 0.0176876 0.0192175 0.020401 0.0211791 0.0215154 
0.00756034 0.0080117 0.00902857 0.0105031 0.0122865 0.0142122 0.0161229 0.0178861 0.0193953 
0.0205672 0.021341 0.0216765 0.00774591 0.00822125 0.0092826 0.0107992 0.0126013 0.0145151 
0.0163923 0.0181178 0.0195986 0.0207554 0.0215239 0.0218584 0.00801371 0.00851218 0.00961439 
0.011164 0.012969 0.01485 0.0166725 0.0183432 0.0197846 0.020921 0.0216823 0.0220155 
0.00833761 0.00885432 0.00998618 0.0115521 0.0133401 0.0151683 0.0169191 0.0185229 0.0199181 
0.0210307 0.0217837 0.0221151 0.00863105 0.00915913 0.0103073 0.0118755 0.0136369 0.0154099 
0.0170925 0.0186354 0.0199896 0.0210813 0.0218269 0.0221568 0.00878289 0.00931555 0.0104695 
0.0120356 0.0137804 0.0155228 0.0171693 0.0186807 0.0200137 0.0210949 0.0218368 0.0221659 
-0.00231729 -0.00231079 -0.00222531 -0.0019253 -0.00127986 -0.00023274 0.00115949 0.00273825 0.00429152 
0.00561036 0.00652878 0.00693761 -0.00234063 -0.00232972 -0.00223439 -0.00192052 -0.00125952 -0.000197971 
0.00120501 0.00278967 0.00434442 0.00566203 0.00657851 0.00698624 -0.00246623 -0.00244395 -0.00232298 
-0.00197227 -0.00126858 -0.000165537 0.00127108 0.00287769 0.00444298 0.00576314 0.00667857 0.00708518 
-0.00283781 -0.00279509 -0.00262729 -0.00220763 -0.00142115 -0.000233531 0.00127693 0.00293824 0.00453743 
0.00587472 0.00679694 0.00720538 -0.00361729 -0.00354209 -0.00329897 -0.00276611 -0.00184 -0.000504695 
0.0011408 0.00290894 0.00458131 0.00596199 0.00690607 0.00732229 -0.00492517 -0.00480233 -0.00444781 
-0.00374531 -0.00260645 -0.00104183 0.000818105 0.00276079 0.00455733 0.00601539 0.00700081 0.00743249 
-0.00678852 -0.00660067 -0.00609338 -0.0051566 -0.00372175 -0.00183583 0.000326568 0.00251703 0.00449103 
0.00606056 0.00710603 0.00756034 -0.00910434 -0.00883453 -0.00813431 -0.00690101 -0.00509102 -0.00279808 
-0.000253834 0.00224731 0.00444141 0.00614713 0.00726476 0.00774591 -0.0116259 -0.0112627 -0.0103428 
-0.00877188 -0.0065357 -0.00378257 -0.0008103 0.00203419 0.00446641 0.00631523 0.00750611 0.00801371 
-0.0139849 -0.0135295 -0.0123925 -0.0104888 -0.00783383 -0.00463128 -0.00124531 0.00192559 0.00457848 
0.0065551 0.00780839 0.00833761 -0.0157618 -0.0152335 -0.0139251 -0.0117589 -0.00877467 -0.00522076 
-0.00151428 0.00190581 0.00472325 0.00679177 0.00808776 0.00863105 -0.0165916 -0.0160282 -0.0146373 
-0.0123449 -0.00920277 -0.0054809 -0.00162209 0.00191533 0.00480906 0.00691913 0.00823372 0.00878291 
-0.0165916 -0.0160282 -0.0146373 -0.0123449 -0.00920277 -0.0054809 -0.00162208 0.00191537 0.00480913 
0.00691923 0.00823383 0.00878301 -0.0174534 -0.0168528 -0.0153745 -0.0129486 -0.00963966 -0.00574072 
-0.0017219 0.00193801 0.00491054 0.00706279 0.00839576 0.00895057 -0.0195427 -0.0188489 -0.0171516 
-0.0143915 -0.0106658 -0.00632632 -0.00191191 0.00204761 0.00520946 0.00745984 0.0088333 0.00939972 
-0.0229847 -0.0221274 -0.0200469 -0.0167033 -0.0122529 -0.00715273 -0.00206307 0.00239784 0.0058653 
0.00826369 0.0096907 0.0102695 -0.027935 -0.026821 -0.0241397 -0.0198845 -0.0143086 -0.00803821 
-0.00192673 0.00327101 0.0071627 0.00974224 0.0112159 0.0117972 -0.0345078 -0.0330141 -0.0294454 
-0.0238493 -0.0166298 -0.00867073 -0.00111412 0.00508689 0.00951027 0.0122688 0.0137458 0.0143007 
-0.0426857 -0.0406599 -0.0358508 -0.0283889 -0.0189002 -0.00864006 0.000842272 0.00832278 0.0133523 
0.0162314 0.0176158 0.0180887 -0.0522045 -0.049484 -0.0430588 -0.0331772 -0.0207711 -0.007593 
0.00427734 0.0132744 0.0189288 0.021807 0.0229487 0.0232572 -0.0624115 -0.0588698 -0.050538 
-0.0378166 -0.0220189 -0.00549688 0.0090528 0.0196825 0.0259117 0.0286323 0.0293629 0.0294166 
-0.0721309 -0.0677494 -0.0574717 -0.0418679 -0.0226637 -0.00283351 0.0143162 0.026477 0.0331665 
0.0356064 0.0358178 0.0355612 -0.0796869 -0.0746231 -0.0627668 -0.0448378 -0.0229141 -0.000480455 
0.0186816 0.0319974 0.0389885 0.0411364 0.0408715 0.0403341 -0.0833079 -0.0779099 -0.0652815 
-0.0462196 -0.022981 0.000698674 0.0208132 0.034667 0.0417856 0.0437738 0.0432614 0.0425787 
0.00189139 0.00270381 0.00456597 0.00733285 0.0107503 0.0144592 0.0180613 0.0212148 0.0237085 
0.0254752 0.0265478 0.0269878 0.0021422 0.00293041 0.00473779 0.00742524 0.0107482 0.0143601 
0.0178751 0.0209603 0.0234077 0.0251478 0.026208 0.0266439 0.00268338 0.00342028 0.00511156 
0.00763053 0.0107529 0.0141585 0.0174877 0.020427 0.0227752 0.024458 0.0254908 0.0259177 
0.0034135 0.00408348 0.00562319 0.00792195 0.0107816 0.0139162 0.0170008 0.019747 0.021963 
0.0235684 0.0245636 0.0249777 0.00421559 0.00481559 0.00619662 0.00826433 0.0108476 0.0136959 
0.0165207 0.0190605 0.0211338 0.0226544 0.0236075 0.024007 0.00498407 0.00552119 0.00675932 
0.00861825 0.0109505 0.0135375 0.0161236 0.0184721 0.0204116 0.0218512 0.0227631 0.0231479 
0.00564342 0.00613069 0.00725514 0.00894697 0.0110769 0.0134513 0.0158415 0.0180313 0.0198584 
0.0212288 0.0221047 0.0224764 0.00615605 0.00660824 0.00765214 0.00922431 0.0112074 0.0134256 
0.0156699 0.0177401 0.0194813 0.0207981 0.0216456 0.0220069 0.00651928 0.0069497 0.00794301 
0.00943858 0.0113256 0.0134394 0.0155844 0.0175719 0.019253 0.0205319 0.0213591 0.0217129 
0.00675332 0.00717208 0.00813765 0.00958981 0.0114205 0.0134711 0.0155545 0.0174897 0.0191323 
0.0203866 0.0212007 0.0215496 0.00688557 0.00729912 0.00825186 0.00968291 0.0114848 0.0135019 
0.0155515 0.0174575 0.0190783 0.0203188 0.0211255 0.0214716 0.00693761 0.00734953 0.00829804 
0.00972177 0.0115133 0.0135177 0.0155543 0.0174489 0.0190612 0.0202961 0.0210999 0.021445 
-0.0167923 -0.0167422 -0.016502 -0.0158336 -0.0145007 -0.0123946 -0.00961401 -0.00646273 -0.00336346 
-0.000738185 0.00108316 0.0018914 -0.0158861 -0.0158432 -0.0156223 -0.0149897 -0.0137134 -0.0116854 
-0.00900045 -0.00595258 -0.00295175 -0.000407786 0.00135823 0.00214221 -0.0139596 -0.0139314 -0.0137507 
-0.0131933 -0.0120362 -0.0101736 -0.00769111 -0.00486219 -0.0020698 0.000301992 0.00195081 0.00268338 
-0.0114358 -0.0114258 -0.0112949 -0.0108329 -0.00982908 -0.00818061 -0.00596102 -0.00341683 -0.000895682 
0.00125189 0.00274797 0.0034135 -0.00879046 -0.00879714 -0.00871382 -0.00834571 -0.00749647 -0.00606707 
-0.0041187 -0.0018696 0.000369575 0.0022835 0.00362013 0.00421559 -0.00642351 -0.00644193 -0.00639421 
-0.00610092 -0.00538025 -0.00413825 -0.00242602 -0.000436741 0.00155222 0.00325767 0.00445149 0.00498407 
-0.00458242 -0.0046058 -0.00457672 -0.00432932 -0.00369546 -0.00258754 -0.00105053 0.000741211 0.00253677 
0.00407923 0.00516056 0.00564342 -0.00334802 -0.00336967 -0.00334196 -0.00311012 -0.00251801 -0.00148547 
-5.58729e-005 0.00160813 0.00327417 0.00470492 0.00570803 0.00615605 -0.00266237 -0.0026772 -0.00263735 
-0.0023964 -0.00180825 -0.000800659 0.000580767 0.00217869 0.00377207 0.00513702 0.0060927 0.00651928 
-0.00237749 -0.00238318 -0.00232437 -0.00206049 -0.00145314 -0.000437618 0.000936121 0.00251159 0.0040736 
0.00540673 0.00633806 0.00675332 -0.00231337 -0.00231095 -0.0022345 -0.001947 -0.00131526 -0.000280305 
0.00110357 0.00267873 0.00423244 0.00555395 0.00647523 0.00688557 -0.00231729 -0.00231079 -0.00222531 
-0.0019253 -0.00127986 -0.00023274 0.00115949 0.00273825 0.00429152 0.00561036 0.00652878 0.00693761 
-0.0877961 -0.0875376 -0.0868837 -0.0854949 -0.0824069 -0.0762639 -0.0664846 -0.0542218 -0.0418103 
-0.0314366 -0.0244294 -0.0213819 -0.0845753 -0.0842723 -0.0834921 -0.0818927 -0.0786028 -0.0724478 
-0.0629637 -0.0512309 -0.0393967 -0.0294955 -0.0227927 -0.0198731 -0.0775005 -0.0771349 -0.076169 
-0.074256 -0.0706883 -0.0646118 -0.0557727 -0.0451218 -0.0344587 -0.025524 -0.019451 -0.0167976 
-0.0677481 -0.0673568 -0.0662949 -0.0642124 -0.0605588 -0.0547872 -0.0468466 -0.0375526 -0.0283363 
-0.0206075 -0.0153318 -0.0130189 -0.0568431 -0.0564804 -0.0554655 -0.0534517 -0.0500017 -0.0447827 
-0.0378782 -0.029985 -0.0222269 -0.0157203 -0.0112639 -0.00930469 -0.0462377 -0.0459398 -0.0450728 
-0.0433029 -0.0402644 -0.0357446 -0.0298882 -0.0232901 -0.0168435 -0.0114364 -0.00772357 -0.00608769 
-0.0369503 -0.0367265 -0.0360395 -0.034576 -0.0320158 -0.0282042 -0.0232979 -0.017804 -0.0124493 
-0.00795402 -0.00486064 -0.00349526 -0.0294722 -0.0293134 -0.02879 -0.0276113 -0.0254884 -0.0222924 