# vtk DataFile Version 4.2
vtk output
ASCII
DATASET POLYDATA
POINTS 50000 float
3064 1178 0 998 1626 0 3924 344 0 
4026 1140 0 1396 1412 0 172 330 0 
2086 830 0 2258 1398 0 1836 1118 0 
1552 1052 0 426 1508 0 3002 948 0 
388 1712 0 2422 940 0 998 2028 0 
3330 660 0 1726 1028 0 308 260 0 
1192 1908 0 1364 1166 0 2664 1206 0 
3652 1228 0 1326 1812 0 2324 656 0 
3016 1318 0 3452 1152 0 3880 2046 0 
3756 46 0 242 786 0 3612 1180 0 
1006 1814 0 3690 910 0 1066 1966 0 
2902 1220 0 1076 1600 0 704 1752 0 
704 1396 0 3070 1146 0 3582 1300 0 
2474 1026 0 3264 596 0 3140 1000 0 
2620 1248 0 350 1390 0 130 888 0 
3214 1062 0 396 1328 0 1208 130 0 
2840 1340 0 1316 1246 0 98 1562 0 
3024 778 0 2484 854 0 2270 646 0 
2168 992 0 2138 816 0 3148 1476 0 
866 1522 0 2092 1180 0 2470 834 0 
1166 1228 0 134 1942 0 370 1382 0 
3436 304 0 2682 30 0 322 664 0 
3196 1752 0 2126 422 0 3396 1318 0 
2946 1140 0 3232 1608 0 3134 1468 0 
1320 1742 0 4082 1474 0 690 1706 0 
2742 1332 0 3624 1394 0 3468 370 0 
2566 1118 0 1064 448 0 898 642 0 
112 266 0 3136 856 0 2338 536 0 
2410 1066 0 2686 1088 0 2776 1454 0 
1354 1174 0 2324 1308 0 3698 236 0 
496 1430 0 450 202 0 428 1528 0 
2880 496 0 2702 1072 0 2658 1116 0 
2768 594 0 552 1826 0 3900 1516 0 
722 30 0 666 1606 0 240 790 0 
3130 1314 0 3450 1386 0 396 1114 0 
1074 1110 0 2370 542 0 3538 1162 0 
3340 1260 0 2012 1064 0 196 1632 0 
1596 1882 0 3230 842 0 1832 1052 0 
3102 570 0 2198 1234 0 2476 854 0 
1820 96 0 3834 346 0 2670 672 0 
1968 1168 0 2762 1146 0 1228 1520 0 
1146 158 0 108 714 0 2714 910 0 
452 1706 0 1798 374 0 680 912 0 
1120 352 0 2206 698 0 1812 1996 0 
1948 422 0 320 1262 0 2564 1014 0 
3462 1132 0 3344 538 0 1752 1136 0 
1054 914 0 980 1710 0 1078 1100 0 
2708 1194 0 3384 1026 0 2250 1186 0 
3550 1140 0 1350 952 0 594 506 0 
2354 1818 0 1982 982 0 1168 1426 0 
1304 1072 0 2286 1022 0 594 764 0 
364 154 0 642 906 0 1426 1076 0 
3456 340 0 2290 1054 0 3512 64 0 
3548 214 0 454 1570 0 2040 1200 0 
1912 926 0 676 40 0 3046 1454 0 
744 1722 0 3342 626 0 210 1522 0 
898 1150 0 3388 106 0 624 1982 0 
2768 1340 0 1072 966 0 568 1450 0 
1282 1266 0 1324 1864 0 1708 1318 0 
1506 938 0 3900 724 0 2854 1258 0 
2286 1024 0 2264 682 0 798 1214 0 
3688 1646 0 2910 1214 0 842 1114 0 
1384 316 0 2286 1018 0 3354 194 0 
3322 934 0 570 958 0 2920 1260 0 
836 110 0 612 1796 0 2732 626 0 
964 1770 0 2618 424 0 2550 414 0 
3072 796 0 2756 1264 0 2950 1428 0 
1428 1076 0 3278 1332 0 3542 1230 0 
2888 1202 0 3256 1048 0 454 1414 0 
1786 736 0 1570 1118 0 940 1782 0 
682 1978 0 3236 1428 0 876 1746 0 
1942 860 0 852 1710 0 1012 1616 0 
2762 1302 0 3022 660 0 894 1654 0 
3324 1326 0 858 538 0 806 396 0 
2510 902 0 1008 890 0 98 778 0 
3688 1852 0 1122 1560 0 954 1880 0 
1220 828 0 1248 790 0 236 2004 0 
464 72 0 2676 938 0 3426 1346 0 
2700 1898 0 806 1704 0 2110 662 0 
1196 1438 0 1872 926 0 1020 1952 0 
1702 748 0 2736 1132 0 3092 900 0 
2142 924 0 2312 1578 0 3272 576 0 
2328 816 0 2248 778 0 2620 1174 0 
564 842 0 786 1266 0 496 1616 0 
2314 380 0 3408 1272 0 1664 702 0 
2248 796 0 1056 1520 0 2510 714 0 
1878 1060 0 58 1268 0 3302 574 0 
3642 1238 0 1188 1684 0 24 426 0 
1640 990 0 538 808 0 2156 1276 0 
2008 1262 0 28 1440 0 3432 424 0 
652 2026 0 3996 1250 0 2998 136 0 
600 1690 0 3636 1180 0 2306 1004 0 
624 1258 0 248 1306 0 1752 1018 0 
54 500 0 3770 622 0 396 1552 0 
3452 384 0 3294 878 0 2200 600 0 
14 1076 0 1104 1484 0 3074 1478 0 
3252 1466 0 3220 1174 0 1046 1776 0 
1346 852 0 1994 1298 0 1146 506 0 
2630 1288 0 500 1274 0 3168 1506 0 
2648 1300 0 3166 710 0 2306 1036 0 
1386 896 0 648 1990 0 2286 884 0 
1228 1682 0 452 1566 0 630 1934 0 
3138 1478 0 2984 502 0 430 1500 0 
3308 578 0 322 674 0 3534 1224 0 
2600 1616 0 3146 1282 0 3042 1480 0 
830 1628 0 214 1084 0 314 1304 0 
1046 680 0 808 2002 0 2026 1006 0 
164 1808 0 944 1784 0 3164 1036 0 
2450 756 0 90 1364 0 3112 1374 0 
1948 1160 0 786 1550 0 1360 448 0 
402 1096 0 1828 834 0 2134 1276 0 
2558 1152 0 1474 1312 0 3142 1372 0 
978 1988 0 2182 1098 0 44 954 0 
2460 1070 0 3330 1446 0 762 1798 0 
3544 1178 0 2214 746 0 2120 1292 0 
2534 1002 0 2104 1280 0 3070 1056 0 
2008 268 0 298 2044 0 2414 1206 0 
782 1750 0 1420 964 0 1114 1402 0 
3066 1174 0 2302 1524 0 2090 636 0 
190 1278 0 2924 1214 0 2588 1030 0 
452 1090 0 366 1040 0 1416 1234 0 
2366 936 0 2934 1360 0 3714 1542 0 
2198 1210 0 776 1448 0 3146 1446 0 
2956 1290 0 1244 426 0 136 732 0 
260 1360 0 2508 1006 0 506 1708 0 
1326 1212 0 1690 580 0 1042 1926 0 
3260 1726 0 492 26 0 2114 1028 0 
2872 1220 0 158 1726 0 2726 980 0 
2846 1362 0 2530 1004 0 1000 1858 0 
1926 408 0 174 1310 0 3300 766 0 
2728 902 0 3196 1118 0 490 2016 0 
3386 1060 0 3632 1468 0 540 968 0 
3776 1686 0 1352 970 0 222 1976 0 
500 1748 0 150 1264 0 838 1078 0 
3352 1384 0 1040 1616 0 4030 2032 0 
918 1886 0 2456 874 0 272 620 0 
694 2014 0 2856 1056 0 1176 1242 0 
46 1066 0 2302 848 0 3650 1260 0 
944 856 0 3536 1204 0 2198 1394 0 
3580 1358 0 284 1960 0 1836 964 0 
3302 820 0 1666 1140 0 552 1796 0 
2284 466 0 1170 1656 0 416 2008 0 
592 1452 0 1054 1848 0 210 70 0 
1374 1332 0 3758 478 0 3248 1478 0 
1830 994 0 1672 1314 0 2038 308 0 
3256 800 0 3582 1280 0 2986 1236 0 
3502 1526 0 2078 1046 0 2856 1206 0 
1122 1262 0 2492 898 0 794 1500 0 
366 1152 0 1288 1522 0 284 12 0 
1644 1108 0 1648 998 0 2436 616 0 
1906 200 0 2248 702 0 1066 1650 0 
2366 1096 0 3032 1796 0 534 1180 0 
372 958 0 2724 1240 0 2608 1298 0 
150 760 0 510 1862 0 3418 124 0 
1662 1054 0 3178 1274 0 2644 1264 0 
3056 428 0 956 1634 0 3360 1406 0 
2114 660 0 2702 1142 0 276 1132 0 
1148 900 0 2170 678 0 3512 232 0 
1294 1002 0 1210 1684 0 286 1886 0 
3022 774 0 1610 1138 0 698 1550 0 
2448 1114 0 2550 1032 0 1476 434 0 
442 492 0 972 1374 0 2990 558 0 
530 78 0 936 306 0 1274 308 0 
1352 1412 0 1044 1804 0 1822 834 0 
2146 904 0 2872 1322 0 1048 1382 0 
3672 984 0 2462 396 0 2422 1018 0 
1090 1572 0 1424 1936 0 3576 1298 0 
1572 1146 0 2684 958 0 702 1680 0 
988 1208 0 1426 706 0 604 1666 0 
1642 1080 0 3020 1184 0 2158 1146 0 
1712 888 0 1380 1294 0 3258 1228 0 
1270 1920 0 1110 1524 0 352 1190 0 
3520 248 0 418 346 0 1432 1080 0 
1566 1024 0 1156 1778 0 1372 1290 0 
100 1192 0 1010 1772 0 2586 1486 0 
1784 1076 0 1946 912 0 2896 98 0 
778 1074 0 2984 790 0 3574 282 0 
152 174 0 2406 934 0 672 1668 0 
698 1730 0 3196 1084 0 2630 1152 0 
2122 1632 0 2186 980 0 1584 1036 0 
3330 994 0 3544 1262 0 3514 1148 0 
2898 412 0 2290 968 0 250 848 0 
3272 970 0 1760 984 0 2274 710 0 
36 344 0 2220 842 0 3390 1330 0 
3582 934 0 2202 1108 0 3272 1272 0 
178 206 0 264 1360 0 2082 778 0 
1452 914 0 2514 1020 0 2588 1060 0 
310 1992 0 1954 1028 0 1356 1708 0 
156 1246 0 1026 1498 0 2378 1036 0 
3154 1280 0 1048 1404 0 988 1044 0 
3290 180 0 418 324 0 2506 900 0 
518 1770 0 286 152 0 618 1762 0 
1124 1094 0 1662 1246 0 3136 1316 0 
796 1692 0 2386 934 0 832 1606 0 
3078 1380 0 598 546 0 3934 1732 0 
2838 1150 0 3038 1258 0 3258 1382 0 
262 1364 0 1348 1990 0 280 1248 0 
772 1730 0 814 1660 0 2444 992 0 
3322 1330 0 40 1666 0 1558 834 0 
1540 1034 0 2634 556 0 3722 76 0 
1246 424 0 3820 396 0 2478 198 0 
3138 1482 0 3442 514 0 712 424 0 
2362 824 0 2810 1216 0 1226 1082 0 
1140 1280 0 1280 1330 0 3778 1736 0 
3288 1060 0 1170 1300 0 2762 1288 0 
1098 1328 0 202 1572 0 2854 1174 0 
990 2012 0 1316 1966 0 2588 1122 0 
2468 920 0 1360 1708 0 876 1354 0 
1328 1598 0 3012 320 0 762 1548 0 
492 1734 0 3564 142 0 1182 1798 0 
1192 1328 0 570 1786 0 512 1454 0 
3188 1356 0 116 1894 0 934 1926 0 
1388 954 0 1640 1244 0 3204 992 0 
554 1658 0 1312 1350 0 3156 1336 0 
396 1096 0 498 1672 0 1456 1334 0 
464 1518 0 2552 1136 0 1666 1340 0 
3754 16 0 3576 1332 0 3536 1258 0 
2292 892 0 1128 276 0 934 1100 0 
3302 598 0 494 1460 0 1946 1098 0 
1190 1580 0 542 744 0 1748 1490 0 
2330 1470 0 4036 1158 0 546 896 0 
2990 714 0 516 1416 0 2136 982 0 
3494 268 0 3468 1254 0 2104 514 0 
452 1952 0 714 1436 0 1950 1040 0 
2968 1212 0 3310 1286 0 1784 1040 0 
3510 1156 0 1372 522 0 760 1160 0 
3342 1422 0 1962 420 0 2772 782 0 
2990 1144 0 380 850 0 2280 670 0 
3186 104 0 3090 1386 0 2698 694 0 
2868 1298 0 2970 1182 0 290 1308 0 
3566 1312 0 2966 1216 0 2700 1048 0 
3042 1382 0 214 1358 0 1072 1384 0 
1360 1122 0 734 890 0 292 24 0 
1964 428 0 1188 1432 0 658 1806 0 
2812 1750 0 468 1588 0 3066 1404 0 
3124 958 0 3388 1026 0 1200 1000 0 
2154 1172 0 2030 354 0 2218 882 0 
3240 1312 0 1084 494 0 288 1138 0 
1036 2000 0 226 1092 0 702 1986 0 
3400 1220 0 3254 1456 0 3168 1064 0 
2692 502 0 2768 1126 0 12 702 0 
3906 642 0 1120 1674 0 2432 1032 0 
754 238 0 2456 644 0 600 482 0 
626 224 0 2180 580 0 2096 1172 0 
3072 1090 0 1390 642 0 1076 1758 0 
2844 1306 0 20 396 0 568 1834 0 
180 1900 0 3134 1338 0 2882 1060 0 
1066 1442 0 1058 872 0 216 1726 0 
3128 1466 0 876 1476 0 3644 1654 0 
18 474 0 24 146 0 26 426 0 
1964 924 0 938 1678 0 1904 410 0 
684 598 0 618 1798 0 2942 1214 0 
2804 1218 0 1926 1326 0 3548 1210 0 
1002 1454 0 266 1192 0 1318 1176 0 
1058 310 0 3030 1428 0 2532 728 0 
2380 872 0 3294 1094 0 884 1518 0 
2886 1242 0 940 130 0 1186 1724 0 
3476 366 0 1150 1012 0 1182 928 0 
3612 1612 0 830 1950 0 3354 1106 0 
1908 990 0 1204 1116 0 462 492 0 
3382 1322 0 3016 696 0 944 170 0 
2200 268 0 304 374 0 2110 794 0 
216 98 0 406 1738 0 2482 908 0 
2940 1204 0 2408 1026 0 1696 1110 0 
1186 1660 0 3082 1176 0 2890 1044 0 
236 1316 0 824 1714 0 1454 902 0 
708 2012 0 3074 1300 0 954 106 0 
3142 946 0 1168 1268 0 540 1538 0 
3712 72 0 202 1244 0 460 1520 0 
3282 812 0 3142 1252 0 282 2010 0 
830 1952 0 3356 1712 0 1168 1114 0 
100 684 0 280 1960 0 646 360 0 
968 80 0 3930 142 0 664 1696 0 
964 1624 0 2306 638 0 1014 644 0 
1642 1256 0 3022 1174 0 630 626 0 
[...]
POINT_DATA 50000
SCALARS altitude float
LOOKUP_TABLE default
123 123 117 104 133 74 72 86 113 
44 63 174 97 100 69 97 71 81 
99 62 72 99 131 115 72 83 100 
94 36 84 79 119 92 84 63 35 
107 117 90 102 86 130 76 57 23 
110 64 85 72 60 85 169 97 109 
103 60 93 108 106 76 67 74 44 
88 126 47 142 78 68 159 142 92 
128 90 68 92 99 62 105 98 109 
107 138 101 47 104 128 44 112 121 
66 109 54 173 107 70 173 49 92 
120 59 35 84 123 102 71 123 55 
59 108 98 131 96 103 120 83 96 
99 121 163 101 93 79 85 44 154 
54 103 114 92 78 119 86 91 89 
60 60 76 84 92 74 68 104 111 
75 141 98 109 79 113 105 95 126 
113 113 97 70 101 96 66 47 87 
73 106 83 92 58 101 125 143 70 
71 101 50 35 132 119 87 115 71 
98 98 120 82 111 121 107 93 136 
55 116 76 102 34 165 114 149 145 
134 52 141 96 78 57 94 114 50 
102 92 107 92 50 101 110 77 114 
49 162 111 66 109 107 110 91 39 
122 61 82 119 141 70 101 132 125 
115 67 69 102 84 59 115 119 163 
66 98 86 104 77 81 125 129 64 
113 88 120 80 65 133 112 33 89 
78 70 131 110 115 85 100 56 67 
87 93 121 68 97 49 109 41 48 
78 120 49 94 76 76 27 52 92 
94 138 71 145 112 123 96 102 103 
98 112 76 129 61 113 119 59 90 
101 158 31 67 46 108 115 114 126 
81 29 61 105 92 77 111 103 112 
84 50 73 111 114 113 100 112 81 
126 127 83 96 102 33 71 140 67 
66 76 90 79 107 170 98 100 105 
58 104 63 126 93 104 65 97 64 
94 58 105 40 73 103 88 87 90 
75 119 46 47 64 58 74 113 34 
144 110 91 119 105 129 107 76 70 
92 82 86 156 165 104 87 105 111 
99 142 73 50 27 117 97 89 88 
52 72 50 86 124 67 22 104 96 
109 79 81 77 97 69 102 96 85 
111 71 105 73 65 61 115 132 128 
68 112 92 105 86 87 118 69 138 
73 79 77 82 125 105 70 96 134 
94 108 67 106 131 121 69 44 126 
36 57 137 49 156 74 119 122 88 
68 89 62 103 76 76 97 101 106 
177 84 47 73 72 108 65 94 166 
106 100 112 131 51 106 82 80 85 
113 129 80 50 123 83 116 108 75 
94 138 83 76 92 78 115 122 111 
104 33 69 82 85 83 80 83 103 
23 77 122 67 69 146 122 175 93 
81 72 57 61 130 46 114 113 35 
87 61 53 163 79 39 68 81 65 
106 86 81 116 99 124 91 57 110 
91 95 40 108 87 148 22 71 83 
141 75 106 106 80 110 72 97 46 
81 121 91 66 51 118 49 95 85 
109 126 61 61 133 90 35 62 109 
63 89 109 86 154 103 120 125 118 
109 103 112 85 107 83 45 70 100 
73 42 56 74 104 129 55 129 58 
90 147 105 120 135 87 49 61 90 
69 53 94 113 94 26 128 88 111 
75 127 135 96 33 118 30 105 112 
91 80 70 93 88 88 84 72 98 
71 109 120 98 103 89 176 88 116 
69 114 95 94 90 84 103 77 79 
65 116 123 102 87 170 142 84 99 
115 58 165 56 101 85 77 111 85 
83 77 34 86 113 105 81 116 59 
126 64 80 164 118 94 82 96 111 
89 99 85 67 28 89 91 86 115 
162 102 44 123 34 93 101 136 96 
100 63 90 133 125 37 66 128 71 
114 112 138 45 106 106 83 110 131 
89 58 133 45 119 91 110 51 109 
82 118 57 71 69 47 96 105 114 
116 105 122 99 98 95 56 84 95 
98 73 96 81 93 73 69 143 99 
98 76 86 61 62 76 89 67 99 
78 150 141 52 73 92 80 82 96 
150 55 42 84 35 33 60 117 101 
75 146 56 49 91 109 91 114 47 
109 114 103 106 108 116 135 103 129 
76 106 130 89 68 125 135 97 99 
73 63 127 73 119 105 76 146 102 
55 92 22 97 41 74 78 87 85 
88 113 55 72 100 121 81 63 89 
106 103 63 126 62 83 120 71 62 
93 63 137 112 96 113 89 91 98 
138 88 30 59 76 83 70 81 122 
95 53 112 149 77 91 32 122 106 
103 76 47 84 86 59 129 100 104 
103 149 60 105 85 104 83 91 99 
74 67 78 110 76 67 157 120 91 
110 106 76 78 53 55 95 86 68 
100 122 72 100 119 99 60 113 93 
86 100 116 120 81 100 76 61 119 
124 125 43 88 120 107 78 120 85 
117 92 91 100 110 78 95 85 98 
122 113 130 171 122 74 36 140 76 
136 47 150 120 25 95 152 82 115 
87 119 75 55 105 86 114 76 41 
100 46 58 75 58 116 59 103 126 
107 75 89 119 90 71 110 77 70 
119 100 140 95 82 151 49 83 119 
71 84 111 128 72 99 69 128 86 
111 41 95 72 109 50 19 76 111 
94 95 87 77 65 109 99 86 36 
79 118 28 124 93 63 59 88 92 
50 87 67 95 65 99 106 90 136 
119 78 60 76 86 98 104 90 56 
84 124 124 123 73 74 107 115 78 
114 74 127 127 72 83 20 82 153 
17 81 103 66 85 124 117 100 88 
98 63 128 55 40 140 92 55 101 
90 90 84 86 67 96 98 89 136 
70 102 37 120 85 82 60 117 103 
88 85 82 73 110 98 123 78 87 
46 67 144 179 56 77 109 78 61 
122 96 84 73 57 177 119 41 96 
81 53 72 105 73 76 93 79 75 
100 68 56 101 118 55 90 77 143 
77 86 61 111 129 75 138 65 116 
108 55 54 106 52 88 116 91 136 
88 131 94 95 118 92 71 88 87 
123 69 134 69 60 107 98 127 56 
106 126 163 66 102 101 122 129 176 
125 89 46 131 98 85 87 55 142 
39 90 94 113 73 98 71 37 110 
95 114 74 113 87 125 92 129 70 
58 52 60 134 90 67 100 82 126 
87 114 101 59 103 119 93 97 62 
117 69 72 85 120 98 101 78 74 
91 77 119 81 41 93 58 92 100 
72 91 97 76 64 93 89 78 50 
31 118 99 65 124 84 59 100 91 
72 41 85 72 90 94 27 82 114 
93 69 131 121 96 65 113 112 161 
105 71 115 52 111 68 54 97 48 
98 73 106 67 69 75 94 19 56 
85 81 67 78 106 127 94 99 88 
87 82 124 109 177 99 73 28 133 
73 139 96 114 107 86 73 45 99 
94 102 112 103 70 93 36 112 95 
125 96 74 108 77 145 101 56 61 
110 73 41 73 116 84 116 53 111 
81 102 111 101 106 99 97 78 84 
41 54 90 61 143 174 82 64 44 
103 109 46 55 51 173 139 40 82 
43 85 52 72 88 100 113 77 84 
59 57 124 175 64 117 73 80 81 
70 65 70 106 126 84 41 41 109 
169 45 52 112 48 61 47 112 83 
134 92 99 81 128 90 105 122 82 
47 100 78 167 106 97 33 49 78 
106 115 59 85 77 111 132 70 87 
100 114 87 137 56 104 134 100 140 
149 155 66 92 101 86 76 54 53 
100 87 97 58 110 73 163 95 85 
108 124 91 87 118 107 91 119 79 
116 121 46 63 86 39 79 101 72 
112 127 76 112 101 105 106 77 55 
65 90 107 60 53 119 89 77 78 
63 96 121 68 71 90 125 56 61 
45 100 91 101 68 66 92 81 139 
92 71 121 110 97 145 62 78 96 
67 92 63 58 135 92 75 116 94 
74 94 94 104 72 33 86 80 85 
75 88 54 138 83 27 110 115 68 
78 107 127 127 49 137 113 146 128 
122 110 112 70 112 140 168 58 28 
96 38 37 96 95 72 86 59 79 
83 103 90 102 69 74 37 103 93 
66 106 110 77 94 112 94 68 114 
117 101 140 120 44 102 56 124 73 
90 88 73 66 140 81 85 166 138 
61 92 70 106 123 102 102 70 126 
79 79 67 80 86 61 60 53 80 
104 111 78 88 97 54 67 50 76 
52 37 137 79 148 72 94 72 72 
95 66 75 135 89 157 85 88 46 
82 124 114 114 84 47 122 94 105 
111 33 115 56 75 118 70 85 100 
122 110 112 111 133 137 92 99 81 
77 81 86 34 29 45 97 79 88 
170 111 99 139 109 85 24 143 64 
112 110 63 136 100 93 111 113 116 
119 112 93 63 96 118 135 112 107 
119 66 73 103 105 136 147 115 88 
81 93 88 91 131 143 108 133 56 
46 64 78 78 58 94 69 123 59 
119 66 74 73 74 44 97 91 68 
89 60 89 84 110 36 140 141 119 
46 105 80 54 110 99 98 95 87 
124 79 83 58 40 115 111 113 102 
72 96 126 96 114 58 92 116 53 
106 99 135 90 48 97 59 104 78 
131 89 75 127 86 87 116 76 81 
83 80 147 105 32 120 96 84 105 
82 98 69 96 108 127 73 75 113 
58 95 69 87 61 62 152 122 129 
77 47 97 57 136 106 121 30 102 
120 124 68 80 124 76 101 121 30 
106 105 81 99 64 110 169 116 53 
147 113 121 106 94 138 37 116 54 
84 104 144 173 81 152 50 103 107 
98 96 27 81 86 93 86 67 40 
181 71 85 88 75 145 38 116 35 
111 84 90 76 96 107 63 100 124 
118 137 169 120 143 89 121 116 106 
93 77 134 71 102 57 111 112 56 
22 147 97 63 55 124 95 128 101 
56 142 31 97 94 88 88 94 122 
99 129 100 132 133 124 61 116 80 
109 94 65 114 90 97 98 59 74 
55 49 76 76 94 69 84 139 55 
99 95 68 123 50 80 37 113 93 
142 91 145 89 81 113 61 102 108 
122 102 71 165 89 72 103 150 70 
182 79 97 85 77 106 117 124 112 
107 60 106 78 51 102 144 33 89 
103 131 123 119 83 124 125 79 65 
116 110 119 84 92 100 84 116 76 
77 66 74 143 73 63 92 86 128 
92 111 72 167 89 118 113 76 86 
22 97 132 37 50 128 82 33 125 
57 131 83 137 100 65 57 106 115 
93 116 117 97 56 103 38 125 101 
183 92 37 86 65 98 69 64 139 
102 95 79 92 84 83 103 87 94 
47 68 42 100 113 57 97 142 71 
129 116 55 60 123 87 87 106 93 
102 111 83 86 110 59 74 115 87 
98 170 76 107 108 115 108 115 78 
59 127 125 84 79 136 90 82 90 
84 126 81 117 91 100 35 57 79 
134 117 72 114 117 62 118 98 85 
93 108 97 82 89 119 83 158 96 
110 93 105 121 126 151 132 90 120 
91 43 85 72 71 96 85 118 56 
184 105 79 55 108 56 92 93 118 
87 57 126 62 147 133 100 100 81 
93 92 81 118 65 79 108 67 59 
73 112 36 87 97 115 102 62 87 
117 77 103 98 52 112 107 97 80 
96 127 121 123 64 89 103 57 81 
123 96 71 44 76 136 113 99 51 
85 93 95 128 113 117 100 53 103 
121 113 72 113 133 108 64 102 68 
61 118 112 80 67 50 79 99 159 
127 78 137 106 85 118 62 70 115 
79 85 93 69 50 54 104 114 109 
101 115 119 79 58 101 92 112 167 
97 118 114 79 81 93 69 110 77 
95 133 94 101 33 94 123 27 145 
147 115 117 25 71 123 111 62 31 
105 71 106 72 82 104 91 53 113 
104 123 67 110 130 66 122 91 96 
110 121 64 85 84 100 87 117 117 
74 81 135 122 181 79 72 120 50 
37 68 126 79 101 85 163 85 110 
96 77 65 77 98 85 137 104 70 
154 99 115 92 87 85 133 126 42 
101 151 117 114 69 117 81 115 111 
76 114 84 76 120 143 63 95 93 
41 139 111 64 113 111 92 47 53 
98 39 65 71 124 79 109 73 85 
106 39 109 112 96 91 139 126 114 
130 116 115 45 80 120 44 94 54 
63 73 145 69 96 95 137 95 102 
98 81 92 101 95 61 181 51 64 
101 129 92 91 95 90 118 52 78 
91 80 112 67 50 61 143 71 111 
90 124 115 133 62 122 88 83 104 
89 118 96 135 124 112 102 132 99 
85 83 114 107 121 85 102 108 89 
83 103 64 106 103 93 99 106 142 
19 98 45 108 84 152 86 40 96 
66 135 66 127 78 168 71 63 64 
126 118 108 81 65 154 78 30 115 
76 88 91 105 109 119 62 91 146 
89 96 123 65 115 122 66 122 151 
109 142 101 83 80 110 48 72 63 
98 89 95 68 103 124 77 49 117 
80 126 107 117 73 99 108 62 140 
94 144 115 87 65 132 133 81 118 
110 121 48 27 77 67 87 66 129 
99 73 87 124 57 71 66 102 119 
134 105 115 102 75 50 82 103 113 
90 95 132 67 87 94 88 101 115 
94 106 86 117 94 85 102 76 81 
52 35 102 44 171 74 90 61 103 
124 49 130 83 169 133 67 98 63 
67 151 111 107 46 49 82 85 129 
134 139 92 87 85 103 170 107 120 
91 90 104 98 89 97 104 55 142 
119 89 116 176 60 99 69 64 48 
146 58 89 154 110 111 99 99 66 
50 38 90 47 123 46 87 58 124 
112 124 154 72 108 102 71 60 123 
175 91 97 86 72 47 78 44 118 
160 36 113 102 105 98 96 91 128 
48 58 108 49 93 75 96 102 70 
105 87 78 84 49 123 142 121 85 
100 82 66 98 133 80 128 84 73 
92 56 134 89 110 99 68 75 104 
107 69 101 94 93 123 100 134 100 
91 90 127 48 62 115 113 72 77 
95 90 107 108 157 104 86 109 126 
81 99 61 76 108 134 71 135 87 
136 91 43 145 84 84 130 77 107 
142 138 95 97 118 124 79 119 151 
86 124 72 62 61 138 112 98 94 
96 71 111 94 46 94 132 108 117 
120 92 121 67 94 107 70 110 77 
102 102 65 47 24 122 74 124 98 
87 40 117 90 59 124 50 106 99 
69 105 63 66 110 94 101 37 129 
128 80 73 109 65 91 152 127 126 
122 86 96 120 101 87 113 106 118 
87 115 21 47 26 25 74 98 89 
61 116 83 103 78 67 37 94 130 
114 73 125 128 51 92 118 64 96 
54 116 87 111 57 98 39 88 101 
86 120 39 89 79 146 41 77 48 
79 136 88 112 134 84 48 101 117 
97 91 79 82 109 106 102 29 170 
75 40 67 116 70 128 60 112 128 
110 74 66 87 118 70 99 132 63 
61 47 119 116 97 108 84 105 124 
102 65 133 138 82 52 69 59 78 
116 84 58 25 27 59 143 83 89 
128 57 50 53 73 98 90 78 89 
52 91 110 39 87 128 42 114 141 
104 62 37 56 109 80 119 127 94 
75 131 116 38 128 58 83 132 53 
129 66 71 160 76 123 69 69 135 
51 96 134 100 62 162 103 28 45 
138 93 110 64 115 69 57 106 130 
111 120 96 118 113 79 112 91 105 
96 110 93 118 136 79 92 115 27 
124 97 115 49 110 85 102 66 135 
88 62 122 95 48 121 114 65 102 
59 91 117 119 123 159 92 102 147 
84 96 164 101 89 85 95 93 95 
102 96 123 61 136 70 108 101 83 
122 110 40 177 119 82 132 67 74 
106 76 110 62 115 99 101 106 76 
121 96 85 61 74 56 116 72 124 
81 104 108 126 141 119 61 108 79 
74 132 67 131 147 131 123 33 100 
92 115 84 57 85 91 88 125 105 
106 101 58 69 107 42 113 84 129 
92 119 100 78 85 60 68 87 70 
53 71 134 41 133 55 86 149 100 
105 22 139 71 137 110 139 117 112 
49 63 119 79 90 94 97 119 134 
90 165 50 85 100 108 118 106 70 
78 32 135 86 69 56 107 78 135 
80 93 117 86 92 98 135 76 133 
135 40 69 127 43 66 150 95 126 
66 109 115 106 38 84 56 40 123 
83 116 142 82 87 76 84 99 86 
80 108 114 30 123 86 86 112 110 
97 104 37 135 97 110 66 141 137 
120 40 97 91 122 92 84 126 122 
89 69 74 49 93 95 79 44 67 
76 99 42 87 32 101 45 121 121 
89 94 116 87 70 109 121 94 32 
46 80 111 111 117 112 152 83 119 
65 136 109 88 82 95 82 80 98 
98 78 121 75 136 80 58 87 90 
78 128 64 81 76 137 109 102 136 
105 66 106 60 167 175 92 157 91 
108 38 68 81 84 104 45 143 43 
101 113 151 106 92 46 76 84 119 
84 94 94 58 27 70 67 121 124 
91 69 37 49 125 116 132 58 103 
113 82 116 116 73 97 112 108 144 
87 74 87 115 55 177 94 128 78 
86 112 114 120 92 61 113 151 66 
51 53 166 64 76 110 86 121 104 
77 66 83 97 97 53 67 86 91 
97 125 62 108 88 113 121 65 120 
80 179 59 54 56 166 88 112 121 
110 114 95 107 101 117 45 113 89 
66 66 92 90 87 106 98 71 42 
144 41 135 80 78 138 87 97 104 
70 93 72 97 105 82 79 134 107 
92 78 132 96 158 40 77 71 143 
77 92 121 110 90 68 84 158 102 
92 63 43 181 89 119 116 132 76 
135 98 103 117 41 100 85 126 151 
95 107 90 110 122 86 106 85 64 
94 90 94 108 105 82 105 76 120 
87 73 105 54 122 91 96 85 137 
61 88 124 84 85 76 81 123 133 
101 88 99 80 80 72 63 132 104 
125 41 93 157 111 44 115 99 108 
59 76 90 78 75 84 132 101 110 
41 63 60 116 87 101 58 103 95 
114 48 88 93 74 103 109 125 81 
83 102 95 65 43 52 112 137 54 
101 114 158 30 73 53 78 75 90 
143 124 21 161 53 43 112 107 68 
99 124 102 76 90 131 91 78 33 
103 141 124 72 66 93 130 50 60 
40 114 105 96 126 70 105 102 137 
125 147 106 109 58 76 107 83 79 
129 122 104 85 146 57 132 145 104 
58 109 73 37 103 104 125 100 69 
60 58 87 36 103 121 86 67 90 
109 135 80 98 41 38 74 95 123 
80 118 88 64 109 110 121 119 88 
54 73 47 87 102 119 40 139 83 
38 84 69 61 82 67 69 101 43 
131 124 84 137 77 91 96 124 87 
108 64 117 103 103 54 36 111 40 
123 87 76 69 78 100 86 106 116 
42 108 105 134 48 44 42 93 69 
88 77 89 54 88 171 107 96 115 
102 125 67 58 132 113 112 101 76 
137 81 76 120 102 61 95 97 131 
46 108 86 29 89 131 64 105 87 
80 81 101 81 85 75 112 96 133 
141 104 93 66 124 90 92 92 98 
78 72 137 123 91 146 110 77 120 
147 78 119 90 106 85 26 61 63 
107 75 146 109 102 107 105 167 62 
84 75 88 173 111 115 89 42 117 
102 99 102 114 93 96 40 68 48 
112 60 98 113 99 51 54 114 29 
78 108 114 112 71 35 131 77 78 
76 112 61 132 64 88 81 58 108 
81 39 116 74 42 99 120 111 126 
125 114 121 95 54 77 80 44 79 
107 154 121 107 79 69 91 87 44 
79 119 101 121 85 90 73 103 91 
56 147 112 101 93 121 86 59 112 
56 88 78 167 94 89 113 28 100 
109 111 119 68 36 61 130 26 154 
41 121 63 94 105 52 92 133 131 
135 108 65 97 127 82 108 77 80 
84 111 135 60 66 144 39 77 72 
96 80 125 99 83 106 104 33 114 
68 98 27 35 76 113 102 92 98 
51 134 76 116 114 114 103 83 32 
40 113 140 71 60 66 115 111 99 
87 98 124 85 143 66 83 109 72 
85 58 94 75 165 89 108 121 73 
115 96 78 122 84 57 84 49 81 
61 116 84 99 49 74 75 93 60 
72 143 109 89 72 122 124 73 97 
111 112 71 57 64 110 92 95 78 
106 55 87 108 93 45 70 128 114 
98 58 82 51 55 107 141 95 121 
92 78 38 71 101 123 91 81 74 
110 90 84 39 128 97 147 127 107 
31 83 82 93 40 97 86 101 80 
71 77 97 39 79 79 65 50 85 
134 120 98 65 79 55 57 95 138 
96 69 122 110 116 88 84 109 77 
114 138 119 61 123 71 56 90 132 
79 109 68 56 103 115 92 103 119 
35 41 87 60 141 89 100 90 68 
115 90 118 112 133 105 103 123 69 
53 77 69 77 80 87 70 138 54 
71 51 128 117 99 95 69 57 115 
102 110 91 78 142 79 94 39 101 
101 109 67 117 137 90 122 71 148 
98 73 37 72 85 82 140 64 101 
97 122 63 57 103 44 126 84 52 
90 83 95 85 94 58 87 96 123 
64 83 56 96 71 108 84 130 105 
51 82 118 113 100 55 71 121 91 
114 113 48 82 45 131 77 98 99 
103 87 100 80 96 142 87 85 118 
60 66 57 84 45 62 109 92 108 
71 111 99 61 28 93 85 57 116 
138 129 130 180 126 94 120 104 64 
43 79 97 76 137 88 104 74 97 
38 59 134 92 118 75 113 113 81 
111 61 50 116 90 66 121 94 65 
96 53 111 66 73 103 123 20 73 
107 68 39 50 135 82 82 62 113 
117 108 104 88 83 128 47 91 128 
109 61 91 123 36 61 70 100 111 
159 78 112 100 61 111 48 105 103 
55 59 73 95 86 118 77 61 73 
60 91 61 36 131 59 96 60 36 
53 48 40 106 52 67 119 72 111 
92 99 132 106 121 116 141 101 89 
90 92 108 114 126 65 132 47 102 
119 69 119 74 86 135 135 100 65 
83 82 95 80 108 77 68 70 98 
64 117 104 96 106 123 81 121 44 
61 126 97 92 79 138 106 124 87 
102 86 71 78 107 99 135 87 118 
67 61 92 93 108 38 110 169 66 
88 116 93 121 141 62 81 81 52 
74 137 121 110 94 105 85 102 57 
84 110 127 135 125 58 42 91 47 
81 136 65 122 147 122 90 119 143 
94 105 114 75 59 132 122 98 87 
111 96 93 85 79 54 73 109 86 
90 57 118 64 112 113 52 103 123 
100 41 76 70 98 70 125 64 142 
88 98 105 113 64 111 32 53 77 
83 107 86 70 118 101 118 79 66 
103 70 35 83 100 98 129 138 64 
103 70 133 60 104 106 114 76 81 
99 122 75 46 81 118 75 38 38 
128 92 64 157 110 97 74 63 117 
163 83 45 73 40 83 110 121 119 
62 103 78 100 43 77 145 96 126 
76 127 67 102 90 108 75 73 73 
95 106 135 125 71 114 107 76 103 
92 110 115 36 73 95 79 65 109 
125 93 64 120 84 69 125 69 75 
55 76 86 92 100 24 144 75 117 
86 95 120 80 112 83 78 35 69 
29 70 94 101 98 90 105 33 88 
93 53 74 56 68 142 69 65 90 
104 88 85 88 76 132 74 171 100 
123 94 36 42 67 30 84 93 94 
79 137 81 63 60 71 91 58 58 
59 127 62 123 92 102 120 114 127 
75 105 149 88 87 107 118 81 124 
143 75 78 67 69 102 108 112 85 
85 100 120 171 96 99 96 77 118 
107 31 105 36 78 100 100 114 62 
78 132 82 92 68 86 58 84 84 
57 106 90 125 64 69 62 74 50 
34 56 125 106 127 112 132 120 115 
68 84 73 127 35 116 119 96 81 
129 70 94 78 64 155 110 82 36 
74 96 58 88 94 81 72 90 104 
74 127 59 92 68 69 69 99 138 
123 76 46 75 98 120 85 137 75 
91 116 107 45 110 117 127 95 107 
122 79 96 97 81 47 54 85 108 
136 64 79 105 79 77 74 96 89 
27 122 71 58 39 70 115 37 110 
88 113 134 119 102 123 51 110 68 
35 77 100 81 32 86 63 67 84 
84 78 79 68 104 130 64 117 110 
142 76 164 93 38 89 69 60 125 
69 113 72 127 167 129 130 60 44 
70 103 106 114 111 27 98 102 163 
81 88 101 59 91 53 89 52 49 
79 122 68 103 93 35 131 92 26 
80 119 115 85 112 116 108 76 122 
88 40 135 110 62 117 89 103 82 
85 32 112 93 58 104 72 80 124 
120 75 118 103 114 122 71 48 71 
118 66 102 85 64 65 145 49 54 
28 116 118 91 70 63 71 86 63 
76 97 83 81 81 78 94 97 33 
103 95 81 117 78 96 110 103 56 
115 83 76 104 56 125 165 75 105 
46 101 108 108 110 22 95 102 114 
108 102 81 102 24 154 96 80 96 
78 56 86 40 106 92 104 99 62 
106 72 91 57 72 122 17 127 69 
83 69 68 135 96 47 118 62 58 
53 128 88 91 95 118 80 123 167 
61 56 31 75 98 105 122 175 97 
67 97 109 61 17 97 104 71 28 
64 49 98 168 96 112 85 69 109 
126 20 108 124 133 65 107 138 161 
57 57 17 116 101 116 100 114 42 
103 109 78 78 160 98 37 107 37 
105 89 85 72 132 89 82 105 106 
66 108 46 47 127 116 22 173 142 
73 110 89 84 104 98 73 145 79 
100 117 98 103 82 47 76 99 135 
93 78 88 93 67 119 112 52 176 
95 114 101 124 112 86 104 72 77 
103 108 108 85 51 98 102 102 52 
95 108 120 116 112 59 106 111 160 
122 72 60 115 70 85 120 66 88 
93 116 34 87 77 103 62 92 101 
138 51 51 42 93 46 76 91 96 
86 65 78 138 80 100 35 97 79 
115 100 61 126 106 150 123 115 132 
75 42 156 60 118 114 120 67 144 
103 101 112 115 59 67 116 148 124 
131 32 94 132 82 69 95 75 100 
97 68 75 77 121 81 94 42 35 
112 121 64 90 93 17 95 84 40 
88 61 115 105 76 104 124 114 78 
56 97 95 90 82 69 79 74 70 
109 64 92 107 110 86 123 119 87 
98 39 72 119 81 81 65 79 75 
66 99 88 63 71 75 122 119 99 
122 109 94 116 104 139 95 48 152 
87 122 66 106 102 113 108 100 79 
101 75 39 122 71 100 102 126 71 
75 115 114 77 89 67 80 87 110 
113 134 59 97 83 93 83 82 102 
71 103 96 48 78 100 79 32 167 